##############################################################################
#                                                                            #
# Sb-V-Zr          # Zr2V6Sb9                                      # 1520423 #
#                                                                            #
##############################################################################
#                                                                            #
#                           Pearson's Crystal Data                           #
#      Crystal Structure Database for Inorganic Compounds (on DVD)           #
#                              Release 2018/19                               #
#                  Editors: Pierre Villars and Karin Cenzual                 #
#                                                                            #
#   Copyright (c) ASM International & Material Phases Data System (MPDS),    #
# Switzerland & National Institute for Materials Science (NIMS), Japan, 2018 #
#                   All rights reserved. Version 2018.08                     #
#                                                                            #
#   This copy of Pearson's Crystal Data is licensed to:                      #
#   University of Alberta, Chemistry Department, 1-5 Installations License         #
#                                                                            #
##############################################################################

data_1520423
_audit_creation_date                     2021-11-09
_audit_creation_method
;
Pearson's Crystal Data browser
;
#_database_code_PCD                      1520423

# Entry summary

_chemical_formula_structural             'Zr~2~ V~6~ Sb~9~'
_chemical_formula_sum                    'Sb9 V6 Zr2'
_chemical_name_mineral                   ?
_chemical_compound_source                ?
_chemical_name_structure_type            Zr~2~V~6~Sb~9~,tP34,129
_chemical_formula_weight                 1583.8

# Bibliographic data

_publ_section_title
'Stabilization of the New Antimonide Zr~2~V~6~Sb~9~ by V-V and Sb-Sb Bonding' 
_journal_coden_ASTM                      EJICFO
_journal_name_full                       'Eur. J. Inorg. Chem.'
_journal_year                            1998
_journal_volume                          ?
_journal_page_first                      1369
_journal_page_last                       1375
_journal_language                        English
loop_
 _publ_author_name
 _publ_author_address
'Kleinke H.'
;
Marburg Philipps University
Fachbereich Chemie
Marburg
Germany
;

# Standardized crystallographic data

_cell_length_a                           9.783
_cell_length_b                           9.783
_cell_length_c                           7.195
_cell_angle_alpha                        90
_cell_angle_beta                         90
_cell_angle_gamma                        90
_cell_volume                             688.6
_cell_formula_units_Z                    2
_space_group_IT_number                   129
_space_group_name_H-M_alt                'P 4/n m m (origin choice 2)'
loop_
 _space_group_symop_id
 _space_group_symop_operation_xyz
 1 'x, y, z'
 2 '1/2-x, 1/2-y, z'
 3 '1/2-x, y, z'
 4 '-x, -y, -z'
 5 '-x, 1/2+y, -z'
 6 '1/2-y, 1/2-x, z'
 7 '1/2-y, x, z'
 8 '-y, -x, -z'
 9 '-y, 1/2+x, -z'
 10 '1/2+x, -y, -z'
 11 '1/2+x, 1/2+y, -z'
 12 'x, 1/2-y, z'
 13 '1/2+y, -x, -z'
 14 '1/2+y, 1/2+x, -z'
 15 'y, 1/2-x, z'
 16 'y, x, z'
loop_
 _atom_type_symbol
 Sb
 V
 Zr
loop_
 _atom_site_label
 _atom_site_type_symbol
 _atom_site_symmetry_multiplicity
 _atom_site_Wyckoff_symbol
 _atom_site_fract_x
 _atom_site_fract_y
 _atom_site_fract_z
 _atom_site_occupancy
 Sb2 Sb 8 j 0.07794 0.07794 0.3488 1
 Sb3 Sb 8 i 0.25 0.00224 0.81671 1
 V4 V 8 i 0.25 0.609 0.1621 1
 V3 V 4 d 0 0 0 1
 Zr1 Zr 2 c 0.25 0.25 0.0836 1
 Zr2 Zr 2 c 0.25 0.25 0.5868 1
 Sb1 Sb 2 b 0.75 0.25 0.5 1


_exptl_crystal_colour                    ?
_exptl_crystal_density_meas              ?
_exptl_crystal_density_diffrn            7.64
_cell_measurement_temperature            295
_cell_measurement_radiation              'X-rays, Mo Ka'
_cell_measurement_wavelength             0.71069
_cell_measurement_reflns_used            ?
_diffrn_ambient_temperature              295
_diffrn_measurement_device               'automatic diffractometer'
_diffrn_measurement_device_type          ?
_diffrn_radiation_type                   'X-rays, Mo Ka'
_diffrn_radiation_wavelength             0.71069
_diffrn_reflns_number                    616
_diffrn_reflns_theta_min                 3
_diffrn_reflns_theta_max                 60
_exptl_absorpt_coefficient_mu            22.58
_exptl_absorpt_correction_type           yes
_computing_structure_solution            'starting values from the literature'
_refine_ls_number_parameters             32
_refine_ls_number_reflns                 434
_refine_ls_R_factor_gt                   0.034
_refine_ls_wR_factor_gt                  0.064

# End of data set 1520423

